<?xml version="1.0" encoding="UTF-8"?>

<!-- generated on Wed 07 Nov 2018 01:28:47 PM CST by SUMO gui Version 0.32.0
<?xml version="1.0" encoding="UTF-8"?>

<configuration xmlns:xsi="http://www.w3.org/2001/XMLSchema-instance" xsi:noNamespaceSchemaLocation="http://sumo.dlr.de/xsd/sumoConfiguration.xsd">

    <input>
        <net-file value="circles.net.xml"/>
        <route-files value="circles.rou.xml"/>
        <additional-files value="circles.add.xml"/>
    </input>

    <output>
        <tripinfo-output value="tripinfo.xml"/>
    </output>

    <traci_server>
        <remote-port value="36033"/>
    </traci_server>

</configuration>
-->

<detector xmlns:xsi="http://www.w3.org/2001/XMLSchema-instance" xsi:noNamespaceSchemaLocation="http://sumo.dlr.de/xsd/det_e1_file.xsd">
    <interval begin="0.00" end="2166.00" id="0" nVehContrib="58" flow="96.40" occupancy="1.59" speed="8.88" length="5.00" nVehEntered="58"/>
    <interval begin="0.00" end="2166.00" id="1" nVehContrib="55" flow="91.41" occupancy="1.52" speed="8.67" length="5.00" nVehEntered="55"/>
    <interval begin="0.00" end="2166.00" id="2" nVehContrib="28" flow="46.54" occupancy="0.51" speed="14.35" length="5.00" nVehEntered="28"/>
    <interval begin="0.00" end="2166.00" id="3" nVehContrib="72" flow="119.67" occupancy="1.76" speed="10.62" length="5.00" nVehEntered="72"/>
</detector>
