<?xml version="1.0" encoding="UTF-8"?>

<!-- generated on Mon 05 Nov 2018 07:07:43 PM CST by SUMO gui Version 0.32.0
<?xml version="1.0" encoding="UTF-8"?>

<configuration xmlns:xsi="http://www.w3.org/2001/XMLSchema-instance" xsi:noNamespaceSchemaLocation="http://sumo.dlr.de/xsd/sumoConfiguration.xsd">

    <input>
        <net-file value="circles.net.xml"/>
        <route-files value="circles.rou.xml"/>
        <additional-files value="circles.add.xml"/>
    </input>

    <output>
        <tripinfo-output value="tripinfo.xml"/>
    </output>

    <traci_server>
        <remote-port value="48409"/>
    </traci_server>

</configuration>
-->

<detector xmlns:xsi="http://www.w3.org/2001/XMLSchema-instance" xsi:noNamespaceSchemaLocation="http://sumo.dlr.de/xsd/det_e1_file.xsd">
    <interval begin="0.00" end="3000.00" id="0" nVehContrib="92" flow="110.40" occupancy="1.78" speed="9.42" length="5.00" nVehEntered="92"/>
    <interval begin="0.00" end="3000.00" id="1" nVehContrib="95" flow="114.00" occupancy="1.82" speed="9.38" length="5.00" nVehEntered="97"/>
    <interval begin="0.00" end="3000.00" id="2" nVehContrib="32" flow="38.40" occupancy="0.56" speed="11.93" length="5.00" nVehEntered="33"/>
    <interval begin="0.00" end="3000.00" id="3" nVehContrib="93" flow="111.60" occupancy="1.80" speed="9.10" length="5.00" nVehEntered="93"/>
    <interval begin="3000.00" end="3204.00" id="0" nVehContrib="4" flow="70.59" occupancy="1.15" speed="8.59" length="5.00" nVehEntered="4"/>
    <interval begin="3000.00" end="3204.00" id="1" nVehContrib="8" flow="141.18" occupancy="2.36" speed="8.46" length="5.00" nVehEntered="8"/>
    <interval begin="3000.00" end="3204.00" id="2" nVehContrib="3" flow="52.94" occupancy="0.89" speed="8.27" length="5.00" nVehEntered="3"/>
    <interval begin="3000.00" end="3204.00" id="3" nVehContrib="7" flow="123.53" occupancy="1.89" speed="9.77" length="5.00" nVehEntered="7"/>
</detector>
