<?xml version="1.0" encoding="UTF-8"?>

<!-- generated on Tue 06 Nov 2018 03:06:25 PM CST by SUMO gui Version 0.32.0
<?xml version="1.0" encoding="UTF-8"?>

<configuration xmlns:xsi="http://www.w3.org/2001/XMLSchema-instance" xsi:noNamespaceSchemaLocation="http://sumo.dlr.de/xsd/sumoConfiguration.xsd">

    <input>
        <net-file value="circles.net.xml"/>
        <route-files value="circles.rou.xml"/>
        <additional-files value="circles.add.xml"/>
    </input>

    <output>
        <tripinfo-output value="tripinfo.xml"/>
    </output>

    <traci_server>
        <remote-port value="49275"/>
    </traci_server>

</configuration>
-->

<detector xmlns:xsi="http://www.w3.org/2001/XMLSchema-instance" xsi:noNamespaceSchemaLocation="http://sumo.dlr.de/xsd/det_e1_file.xsd">
    <interval begin="0.00" end="672.00" id="0" nVehContrib="19" flow="101.79" occupancy="1.65" speed="9.13" length="5.00" nVehEntered="19"/>
    <interval begin="0.00" end="672.00" id="1" nVehContrib="18" flow="96.43" occupancy="1.54" speed="9.35" length="5.00" nVehEntered="18"/>
    <interval begin="0.00" end="672.00" id="2" nVehContrib="8" flow="42.86" occupancy="0.61" speed="10.53" length="5.00" nVehEntered="8"/>
    <interval begin="0.00" end="672.00" id="3" nVehContrib="19" flow="101.79" occupancy="1.65" speed="9.04" length="5.00" nVehEntered="19"/>
</detector>
