<?xml version="1.0" encoding="UTF-8"?>

<!-- generated on Tue 16 Oct 2018 08:09:58 PM CDT by SUMO gui Version 0.32.0
<?xml version="1.0" encoding="UTF-8"?>

<configuration xmlns:xsi="http://www.w3.org/2001/XMLSchema-instance" xsi:noNamespaceSchemaLocation="http://sumo.dlr.de/xsd/sumoConfiguration.xsd">

    <input>
        <net-file value="data/cross.net.xml"/>
        <route-files value="data/cross.rou.xml"/>
        <additional-files value="data/cross.det.xml"/>
    </input>

    <output>
        <tripinfo-output value="tripinfo.xml"/>
    </output>

    <time>
        <begin value="0"/>
    </time>

    <report>
        <verbose value="true"/>
        <no-step-log value="true"/>
    </report>

    <traci_server>
        <remote-port value="47247"/>
    </traci_server>

</configuration>
-->

<tripinfos xmlns:xsi="http://www.w3.org/2001/XMLSchema-instance" xsi:noNamespaceSchemaLocation="http://sumo.dlr.de/xsd/tripinfo_file.xsd">
    <tripinfo id="left_0" depart="0.00" departLane="52o_0" departPos="5.10" departSpeed="0.00" departDelay="0.00" arrival="91.00" arrivalLane="51i_0" arrivalPos="10.00" arrivalSpeed="11.48" duration="91.00" routeLength="1015.10" waitSteps="0" timeLoss="14.91" rerouteNo="0" devices="tripinfo_left_0" vType="typeWE" speedFactor="1.00" vaporized=""/>
    <tripinfo id="right_2" depart="3.00" departLane="51o_0" departPos="5.10" departSpeed="0.00" departDelay="0.00" arrival="93.00" arrivalLane="52i_0" arrivalPos="10.00" arrivalSpeed="11.75" duration="90.00" routeLength="1015.10" waitSteps="0" timeLoss="13.56" rerouteNo="0" devices="tripinfo_right_2" vType="typeWE" speedFactor="1.00" vaporized=""/>
    <tripinfo id="left_1" depart="5.00" departLane="52o_0" departPos="5.10" departSpeed="0.00" departDelay="3.00" arrival="96.00" arrivalLane="51i_0" arrivalPos="10.00" arrivalSpeed="11.46" duration="91.00" routeLength="1015.10" waitSteps="0" timeLoss="14.96" rerouteNo="0" devices="tripinfo_left_1" vType="typeWE" speedFactor="1.00" vaporized=""/>
    <tripinfo id="right_3" depart="9.00" departLane="51o_0" departPos="10.00" departSpeed="0.00" departDelay="5.00" arrival="99.00" arrivalLane="52i_0" arrivalPos="10.00" arrivalSpeed="11.53" duration="90.00" routeLength="1010.20" waitSteps="0" timeLoss="18.51" rerouteNo="0" devices="tripinfo_right_3" vType="typeEWEmerg" speedFactor="1.00" vaporized=""/>
    <tripinfo id="left_4" depart="10.00" departLane="52o_0" departPos="5.10" departSpeed="0.00" departDelay="0.00" arrival="101.00" arrivalLane="51i_0" arrivalPos="10.00" arrivalSpeed="11.56" duration="91.00" routeLength="1015.10" waitSteps="0" timeLoss="14.71" rerouteNo="0" devices="tripinfo_left_4" vType="typeWE" speedFactor="1.00" vaporized=""/>
    <tripinfo id="right_5" depart="14.00" departLane="51o_0" departPos="5.10" departSpeed="0.00" departDelay="3.00" arrival="106.00" arrivalLane="52i_0" arrivalPos="10.00" arrivalSpeed="11.25" duration="92.00" routeLength="1015.10" waitSteps="0" timeLoss="15.63" rerouteNo="0" devices="tripinfo_right_5" vType="typeWE" speedFactor="1.00" vaporized=""/>
    <tripinfo id="left_7" depart="22.00" departLane="52o_0" departPos="5.10" departSpeed="0.00" departDelay="0.00" arrival="113.00" arrivalLane="51i_0" arrivalPos="10.00" arrivalSpeed="11.51" duration="91.00" routeLength="1015.10" waitSteps="0" timeLoss="14.28" rerouteNo="0" devices="tripinfo_left_7" vType="typeWE" speedFactor="1.00" vaporized=""/>
    <tripinfo id="right_6" depart="22.00" departLane="51o_0" departPos="5.10" departSpeed="0.00" departDelay="0.00" arrival="113.00" arrivalLane="52i_0" arrivalPos="10.00" arrivalSpeed="11.67" duration="91.00" routeLength="1015.10" waitSteps="0" timeLoss="14.40" rerouteNo="0" devices="tripinfo_right_6" vType="typeWE" speedFactor="1.00" vaporized=""/>
    <tripinfo id="right_8" depart="27.00" departLane="51o_0" departPos="5.10" departSpeed="0.00" departDelay="2.00" arrival="118.00" arrivalLane="52i_0" arrivalPos="10.00" arrivalSpeed="11.39" duration="91.00" routeLength="1015.10" waitSteps="0" timeLoss="14.91" rerouteNo="0" devices="tripinfo_right_8" vType="typeWE" speedFactor="1.00" vaporized=""/>
    <tripinfo id="right_9" depart="32.00" departLane="51o_0" departPos="5.10" departSpeed="0.00" departDelay="1.00" arrival="125.00" arrivalLane="52i_0" arrivalPos="10.00" arrivalSpeed="11.31" duration="93.00" routeLength="1015.10" waitSteps="0" timeLoss="16.34" rerouteNo="0" devices="tripinfo_right_9" vType="typeWE" speedFactor="1.00" vaporized=""/>
    <tripinfo id="right_10" depart="37.00" departLane="51o_0" departPos="5.10" departSpeed="0.00" departDelay="3.00" arrival="129.00" arrivalLane="52i_0" arrivalPos="10.00" arrivalSpeed="11.50" duration="92.00" routeLength="1015.10" waitSteps="0" timeLoss="15.62" rerouteNo="0" devices="tripinfo_right_10" vType="typeWE" speedFactor="1.00" vaporized=""/>
    <tripinfo id="left_12" depart="41.00" departLane="52o_0" departPos="5.10" departSpeed="0.00" departDelay="0.00" arrival="132.00" arrivalLane="51i_0" arrivalPos="10.00" arrivalSpeed="11.75" duration="91.00" routeLength="1015.10" waitSteps="0" timeLoss="15.06" rerouteNo="0" devices="tripinfo_left_12" vType="typeWE" speedFactor="1.00" vaporized=""/>
    <tripinfo id="right_11" depart="42.00" departLane="51o_0" departPos="5.10" departSpeed="0.00" departDelay="2.00" arrival="134.00" arrivalLane="52i_0" arrivalPos="10.00" arrivalSpeed="11.83" duration="92.00" routeLength="1015.10" waitSteps="0" timeLoss="15.62" rerouteNo="0" devices="tripinfo_right_11" vType="typeWE" speedFactor="1.00" vaporized=""/>
    <tripinfo id="right_13" depart="47.00" departLane="51o_0" departPos="5.10" departSpeed="0.00" departDelay="3.00" arrival="138.00" arrivalLane="52i_0" arrivalPos="10.00" arrivalSpeed="11.26" duration="91.00" routeLength="1015.10" waitSteps="0" timeLoss="14.46" rerouteNo="0" devices="tripinfo_right_13" vType="typeWE" speedFactor="1.00" vaporized=""/>
    <tripinfo id="left_14" depart="49.00" departLane="52o_0" departPos="5.10" departSpeed="0.00" departDelay="0.00" arrival="141.00" arrivalLane="51i_0" arrivalPos="10.00" arrivalSpeed="11.28" duration="92.00" routeLength="1015.10" waitSteps="0" timeLoss="15.27" rerouteNo="0" devices="tripinfo_left_14" vType="typeWE" speedFactor="1.00" vaporized=""/>
    <tripinfo id="right_15" depart="56.00" departLane="51o_0" departPos="5.10" departSpeed="0.00" departDelay="0.00" arrival="147.00" arrivalLane="52i_0" arrivalPos="10.00" arrivalSpeed="11.22" duration="91.00" routeLength="1015.10" waitSteps="0" timeLoss="14.90" rerouteNo="0" devices="tripinfo_right_15" vType="typeWE" speedFactor="1.00" vaporized=""/>
    <tripinfo id="right_16" depart="63.00" departLane="51o_0" departPos="5.10" departSpeed="0.00" departDelay="0.00" arrival="155.00" arrivalLane="52i_0" arrivalPos="10.00" arrivalSpeed="11.51" duration="92.00" routeLength="1015.10" waitSteps="0" timeLoss="15.32" rerouteNo="0" devices="tripinfo_right_16" vType="typeWE" speedFactor="1.00" vaporized=""/>
    <tripinfo id="left_18" depart="67.00" departLane="52o_0" departPos="5.10" departSpeed="0.00" departDelay="0.00" arrival="158.00" arrivalLane="51i_0" arrivalPos="10.00" arrivalSpeed="11.51" duration="91.00" routeLength="1015.10" waitSteps="0" timeLoss="14.78" rerouteNo="0" devices="tripinfo_left_18" vType="typeWE" speedFactor="1.00" vaporized=""/>
    <tripinfo id="right_17" depart="68.00" departLane="51o_0" departPos="5.10" departSpeed="0.00" departDelay="4.00" arrival="160.00" arrivalLane="52i_0" arrivalPos="10.00" arrivalSpeed="11.63" duration="92.00" routeLength="1015.10" waitSteps="0" timeLoss="15.74" rerouteNo="0" devices="tripinfo_right_17" vType="typeWE" speedFactor="1.00" vaporized=""/>
    <tripinfo id="left_20" depart="74.00" departLane="52o_0" departPos="5.10" departSpeed="0.00" departDelay="0.00" arrival="165.00" arrivalLane="51i_0" arrivalPos="10.00" arrivalSpeed="11.68" duration="91.00" routeLength="1015.10" waitSteps="0" timeLoss="14.61" rerouteNo="0" devices="tripinfo_left_20" vType="typeWE" speedFactor="1.00" vaporized=""/>
    <tripinfo id="down_19" depart="72.00" departLane="54o_0" departPos="10.00" departSpeed="0.00" departDelay="0.00" arrival="184.00" arrivalLane="53i_0" arrivalPos="10.00" arrivalSpeed="9.68" duration="112.00" routeLength="1010.20" waitSteps="0" timeLoss="10.70" rerouteNo="0" devices="tripinfo_down_19" vType="typeNS" speedFactor="1.00" vaporized=""/>
    <tripinfo id="down_23" depart="99.00" departLane="54o_0" departPos="10.00" departSpeed="0.00" departDelay="1.00" arrival="210.00" arrivalLane="53i_0" arrivalPos="10.00" arrivalSpeed="9.97" duration="111.00" routeLength="1010.20" waitSteps="0" timeLoss="9.74" rerouteNo="0" devices="tripinfo_down_23" vType="typeNS" speedFactor="1.00" vaporized=""/>
    <tripinfo id="left_26" depart="118.00" departLane="52o_0" departPos="5.10" departSpeed="0.00" departDelay="1.00" arrival="231.00" arrivalLane="51i_0" arrivalPos="10.00" arrivalSpeed="11.50" duration="113.00" routeLength="1015.10" waitSteps="5" timeLoss="36.50" rerouteNo="0" devices="tripinfo_left_26" vType="typeWE" speedFactor="1.00" vaporized=""/>
    <tripinfo id="right_21" depart="81.00" departLane="51o_0" departPos="5.10" departSpeed="0.00" departDelay="0.00" arrival="231.00" arrivalLane="52i_0" arrivalPos="10.00" arrivalSpeed="11.50" duration="150.00" routeLength="1015.10" waitSteps="45" timeLoss="73.83" rerouteNo="0" devices="tripinfo_right_21" vType="typeWE" speedFactor="1.00" vaporized=""/>
    <tripinfo id="left_27" depart="125.00" departLane="52o_0" departPos="5.10" departSpeed="0.00" departDelay="5.00" arrival="233.00" arrivalLane="51i_0" arrivalPos="10.00" arrivalSpeed="11.70" duration="108.00" routeLength="1015.10" waitSteps="4" timeLoss="31.86" rerouteNo="0" devices="tripinfo_left_27" vType="typeWE" speedFactor="1.00" vaporized=""/>
    <tripinfo id="right_22" depart="92.00" departLane="51o_0" departPos="5.10" departSpeed="0.00" departDelay="0.00" arrival="234.00" arrivalLane="52i_0" arrivalPos="10.00" arrivalSpeed="11.49" duration="142.00" routeLength="1015.10" waitSteps="36" timeLoss="65.39" rerouteNo="0" devices="tripinfo_right_22" vType="typeWE" speedFactor="1.00" vaporized=""/>
    <tripinfo id="left_28" depart="130.00" departLane="52o_0" departPos="5.10" departSpeed="0.00" departDelay="7.00" arrival="235.00" arrivalLane="51i_0" arrivalPos="10.00" arrivalSpeed="11.32" duration="105.00" routeLength="1015.10" waitSteps="1" timeLoss="28.92" rerouteNo="0" devices="tripinfo_left_28" vType="typeWE" speedFactor="1.00" vaporized=""/>
    <tripinfo id="left_29" depart="135.00" departLane="52o_0" departPos="5.10" departSpeed="0.00" departDelay="10.00" arrival="237.00" arrivalLane="51i_0" arrivalPos="10.00" arrivalSpeed="11.18" duration="102.00" routeLength="1015.10" waitSteps="0" timeLoss="25.60" rerouteNo="0" devices="tripinfo_left_29" vType="typeWE" speedFactor="1.00" vaporized=""/>
    <tripinfo id="right_24" depart="106.00" departLane="51o_0" departPos="10.00" departSpeed="0.00" departDelay="0.00" arrival="237.00" arrivalLane="52i_0" arrivalPos="10.00" arrivalSpeed="11.52" duration="131.00" routeLength="1010.20" waitSteps="24" timeLoss="59.34" rerouteNo="0" devices="tripinfo_right_24" vType="typeEWEmerg" speedFactor="1.00" vaporized=""/>
    <tripinfo id="left_32" depart="141.00" departLane="52o_0" departPos="5.10" departSpeed="0.00" departDelay="12.00" arrival="239.00" arrivalLane="51i_0" arrivalPos="10.00" arrivalSpeed="11.47" duration="98.00" routeLength="1015.10" waitSteps="0" timeLoss="21.53" rerouteNo="0" devices="tripinfo_left_32" vType="typeWE" speedFactor="1.00" vaporized=""/>
    <tripinfo id="right_25" depart="115.00" departLane="51o_0" departPos="5.10" departSpeed="0.00" departDelay="0.00" arrival="239.00" arrivalLane="52i_0" arrivalPos="10.00" arrivalSpeed="11.84" duration="124.00" routeLength="1015.10" waitSteps="14" timeLoss="47.83" rerouteNo="0" devices="tripinfo_right_25" vType="typeWE" speedFactor="1.00" vaporized=""/>
    <tripinfo id="left_34" depart="147.00" departLane="52o_0" departPos="5.10" departSpeed="0.00" departDelay="10.00" arrival="241.00" arrivalLane="51i_0" arrivalPos="10.00" arrivalSpeed="11.23" duration="94.00" routeLength="1015.10" waitSteps="0" timeLoss="17.31" rerouteNo="0" devices="tripinfo_left_34" vType="typeWE" speedFactor="1.00" vaporized=""/>
    <tripinfo id="right_30" depart="126.00" departLane="51o_0" departPos="5.10" departSpeed="0.00" departDelay="0.00" arrival="241.00" arrivalLane="52i_0" arrivalPos="10.00" arrivalSpeed="11.14" duration="115.00" routeLength="1015.10" waitSteps="7" timeLoss="38.84" rerouteNo="0" devices="tripinfo_right_30" vType="typeWE" speedFactor="1.00" vaporized=""/>
    <tripinfo id="right_31" depart="132.00" departLane="51o_0" departPos="5.10" departSpeed="0.00" departDelay="5.00" arrival="243.00" arrivalLane="52i_0" arrivalPos="10.00" arrivalSpeed="11.58" duration="111.00" routeLength="1015.10" waitSteps="4" timeLoss="35.03" rerouteNo="0" devices="tripinfo_right_31" vType="typeWE" speedFactor="1.00" vaporized=""/>
    <tripinfo id="left_35" depart="152.00" departLane="52o_0" departPos="5.10" departSpeed="0.00" departDelay="5.00" arrival="244.00" arrivalLane="51i_0" arrivalPos="10.00" arrivalSpeed="11.62" duration="92.00" routeLength="1015.10" waitSteps="0" timeLoss="15.28" rerouteNo="0" devices="tripinfo_left_35" vType="typeWE" speedFactor="1.00" vaporized=""/>
    <tripinfo id="right_33" depart="137.00" departLane="51o_0" departPos="5.10" departSpeed="0.00" departDelay="5.00" arrival="245.00" arrivalLane="52i_0" arrivalPos="10.00" arrivalSpeed="11.23" duration="108.00" routeLength="1015.10" waitSteps="3" timeLoss="31.77" rerouteNo="0" devices="tripinfo_right_33" vType="typeWE" speedFactor="1.00" vaporized=""/>
    <tripinfo id="right_36" depart="150.00" departLane="51o_0" departPos="5.10" departSpeed="0.00" departDelay="0.00" arrival="247.00" arrivalLane="52i_0" arrivalPos="10.00" arrivalSpeed="11.25" duration="97.00" routeLength="1015.10" waitSteps="0" timeLoss="20.71" rerouteNo="0" devices="tripinfo_right_36" vType="typeWE" speedFactor="1.00" vaporized=""/>
    <tripinfo id="right_37" depart="155.00" departLane="51o_0" departPos="5.10" departSpeed="0.00" departDelay="3.00" arrival="249.00" arrivalLane="52i_0" arrivalPos="10.00" arrivalSpeed="11.88" duration="94.00" routeLength="1015.10" waitSteps="0" timeLoss="17.48" rerouteNo="0" devices="tripinfo_right_37" vType="typeWE" speedFactor="1.00" vaporized=""/>
    <tripinfo id="left_38" depart="160.00" departLane="52o_0" departPos="5.10" departSpeed="0.00" departDelay="1.00" arrival="251.00" arrivalLane="51i_0" arrivalPos="10.00" arrivalSpeed="11.56" duration="91.00" routeLength="1015.10" waitSteps="0" timeLoss="14.77" rerouteNo="0" devices="tripinfo_left_38" vType="typeWE" speedFactor="1.00" vaporized=""/>
    <tripinfo id="right_39" depart="165.00" departLane="51o_0" departPos="5.10" departSpeed="0.00" departDelay="1.00" arrival="256.00" arrivalLane="52i_0" arrivalPos="10.00" arrivalSpeed="11.59" duration="91.00" routeLength="1015.10" waitSteps="0" timeLoss="14.67" rerouteNo="0" devices="tripinfo_right_39" vType="typeWE" speedFactor="1.00" vaporized=""/>
    <tripinfo id="right_40" depart="171.00" departLane="51o_0" departPos="5.10" departSpeed="0.00" departDelay="0.00" arrival="262.00" arrivalLane="52i_0" arrivalPos="10.00" arrivalSpeed="11.28" duration="91.00" routeLength="1015.10" waitSteps="0" timeLoss="14.98" rerouteNo="0" devices="tripinfo_right_40" vType="typeWE" speedFactor="1.00" vaporized=""/>
    <tripinfo id="right_41" depart="179.00" departLane="51o_0" departPos="5.10" departSpeed="0.00" departDelay="0.00" arrival="270.00" arrivalLane="52i_0" arrivalPos="10.00" arrivalSpeed="11.55" duration="91.00" routeLength="1015.10" waitSteps="0" timeLoss="14.71" rerouteNo="0" devices="tripinfo_right_41" vType="typeWE" speedFactor="1.00" vaporized=""/>
    <tripinfo id="right_42" depart="184.00" departLane="51o_0" departPos="5.10" departSpeed="0.00" departDelay="4.00" arrival="275.00" arrivalLane="52i_0" arrivalPos="10.00" arrivalSpeed="11.42" duration="91.00" routeLength="1015.10" waitSteps="0" timeLoss="14.75" rerouteNo="0" devices="tripinfo_right_42" vType="typeWE" speedFactor="1.00" vaporized=""/>
    <tripinfo id="right_43" depart="189.00" departLane="51o_0" departPos="5.10" departSpeed="0.00" departDelay="7.00" arrival="281.00" arrivalLane="52i_0" arrivalPos="10.00" arrivalSpeed="11.30" duration="92.00" routeLength="1015.10" waitSteps="0" timeLoss="15.45" rerouteNo="0" devices="tripinfo_right_43" vType="typeWE" speedFactor="1.00" vaporized=""/>
    <tripinfo id="left_44" depart="204.00" departLane="52o_0" departPos="5.10" departSpeed="0.00" departDelay="0.00" arrival="296.00" arrivalLane="51i_0" arrivalPos="10.00" arrivalSpeed="11.49" duration="92.00" routeLength="1015.10" waitSteps="0" timeLoss="15.56" rerouteNo="0" devices="tripinfo_left_44" vType="typeWE" speedFactor="1.00" vaporized=""/>
    <tripinfo id="right_45" depart="213.00" departLane="51o_0" departPos="5.10" departSpeed="0.00" departDelay="0.00" arrival="304.00" arrivalLane="52i_0" arrivalPos="10.00" arrivalSpeed="11.28" duration="91.00" routeLength="1015.10" waitSteps="0" timeLoss="14.98" rerouteNo="0" devices="tripinfo_right_45" vType="typeWE" speedFactor="1.00" vaporized=""/>
    <tripinfo id="right_46" depart="218.00" departLane="51o_0" departPos="5.10" departSpeed="0.00" departDelay="2.00" arrival="310.00" arrivalLane="52i_0" arrivalPos="10.00" arrivalSpeed="11.37" duration="92.00" routeLength="1015.10" waitSteps="1" timeLoss="15.97" rerouteNo="0" devices="tripinfo_right_46" vType="typeWE" speedFactor="1.00" vaporized=""/>
    <tripinfo id="left_47" depart="218.00" departLane="52o_0" departPos="5.10" departSpeed="0.00" departDelay="0.00" arrival="310.00" arrivalLane="51i_0" arrivalPos="10.00" arrivalSpeed="11.53" duration="92.00" routeLength="1015.10" waitSteps="0" timeLoss="15.65" rerouteNo="0" devices="tripinfo_left_47" vType="typeWE" speedFactor="1.00" vaporized=""/>
    <tripinfo id="right_48" depart="227.00" departLane="51o_0" departPos="5.10" departSpeed="0.00" departDelay="0.00" arrival="318.00" arrivalLane="52i_0" arrivalPos="10.00" arrivalSpeed="11.38" duration="91.00" routeLength="1015.10" waitSteps="0" timeLoss="15.04" rerouteNo="0" devices="tripinfo_right_48" vType="typeWE" speedFactor="1.00" vaporized=""/>
    <tripinfo id="right_49" depart="241.00" departLane="51o_0" departPos="5.10" departSpeed="0.00" departDelay="2.00" arrival="332.00" arrivalLane="52i_0" arrivalPos="10.00" arrivalSpeed="11.58" duration="91.00" routeLength="1015.10" waitSteps="0" timeLoss="14.93" rerouteNo="0" devices="tripinfo_right_49" vType="typeWE" speedFactor="1.00" vaporized=""/>
    <tripinfo id="right_50" depart="246.00" departLane="51o_0" departPos="5.10" departSpeed="0.00" departDelay="1.00" arrival="336.00" arrivalLane="52i_0" arrivalPos="10.00" arrivalSpeed="11.51" duration="90.00" routeLength="1015.10" waitSteps="0" timeLoss="13.75" rerouteNo="0" devices="tripinfo_right_50" vType="typeWE" speedFactor="1.00" vaporized=""/>
    <tripinfo id="right_51" depart="251.00" departLane="51o_0" departPos="5.10" departSpeed="0.00" departDelay="1.00" arrival="342.00" arrivalLane="52i_0" arrivalPos="10.00" arrivalSpeed="11.56" duration="91.00" routeLength="1015.10" waitSteps="0" timeLoss="15.06" rerouteNo="0" devices="tripinfo_right_51" vType="typeWE" speedFactor="1.00" vaporized=""/>
    <tripinfo id="left_52" depart="253.00" departLane="52o_0" departPos="5.10" departSpeed="0.00" departDelay="0.00" arrival="344.00" arrivalLane="51i_0" arrivalPos="10.00" arrivalSpeed="10.89" duration="91.00" routeLength="1015.10" waitSteps="0" timeLoss="14.84" rerouteNo="0" devices="tripinfo_left_52" vType="typeWE" speedFactor="1.00" vaporized=""/>
    <tripinfo id="left_54" depart="258.00" departLane="52o_0" departPos="5.10" departSpeed="0.00" departDelay="0.00" arrival="350.00" arrivalLane="51i_0" arrivalPos="10.00" arrivalSpeed="11.81" duration="92.00" routeLength="1015.10" waitSteps="0" timeLoss="15.49" rerouteNo="0" devices="tripinfo_left_54" vType="typeWE" speedFactor="1.00" vaporized=""/>
    <tripinfo id="left_55" depart="263.00" departLane="52o_0" departPos="5.10" departSpeed="0.00" departDelay="1.00" arrival="354.00" arrivalLane="51i_0" arrivalPos="10.00" arrivalSpeed="11.23" duration="91.00" routeLength="1015.10" waitSteps="0" timeLoss="14.51" rerouteNo="0" devices="tripinfo_left_55" vType="typeWE" speedFactor="1.00" vaporized=""/>
    <tripinfo id="down_53" depart="256.00" departLane="54o_0" departPos="10.00" departSpeed="0.00" departDelay="0.00" arrival="367.00" arrivalLane="53i_0" arrivalPos="10.00" arrivalSpeed="9.79" duration="111.00" routeLength="1010.20" waitSteps="0" timeLoss="9.47" rerouteNo="0" devices="tripinfo_down_53" vType="typeNS" speedFactor="1.00" vaporized=""/>
    <tripinfo id="right_57" depart="266.00" departLane="51o_0" departPos="5.10" departSpeed="0.00" departDelay="0.00" arrival="404.00" arrivalLane="52i_0" arrivalPos="10.00" arrivalSpeed="11.30" duration="138.00" routeLength="1015.10" waitSteps="36" timeLoss="62.26" rerouteNo="0" devices="tripinfo_right_57" vType="typeWE" speedFactor="1.00" vaporized=""/>
    <tripinfo id="left_56" depart="270.00" departLane="52o_0" departPos="5.10" departSpeed="0.00" departDelay="5.00" arrival="405.00" arrivalLane="51i_0" arrivalPos="10.00" arrivalSpeed="11.41" duration="135.00" routeLength="1015.10" waitSteps="32" timeLoss="58.49" rerouteNo="0" devices="tripinfo_left_56" vType="typeWE" speedFactor="1.00" vaporized=""/>
    <tripinfo id="right_60" depart="287.00" departLane="51o_0" departPos="5.10" departSpeed="0.00" departDelay="0.00" arrival="407.00" arrivalLane="52i_0" arrivalPos="10.00" arrivalSpeed="11.36" duration="120.00" routeLength="1015.10" waitSteps="17" timeLoss="44.24" rerouteNo="0" devices="tripinfo_right_60" vType="typeWE" speedFactor="1.00" vaporized=""/>
    <tripinfo id="left_58" depart="281.00" departLane="52o_0" departPos="5.10" departSpeed="0.00" departDelay="0.00" arrival="407.00" arrivalLane="51i_0" arrivalPos="10.00" arrivalSpeed="11.85" duration="126.00" routeLength="1015.10" waitSteps="22" timeLoss="49.65" rerouteNo="0" devices="tripinfo_left_58" vType="typeWE" speedFactor="1.00" vaporized=""/>
    <tripinfo id="right_63" depart="292.00" departLane="51o_0" departPos="5.10" departSpeed="0.00" departDelay="0.00" arrival="409.00" arrivalLane="52i_0" arrivalPos="10.00" arrivalSpeed="11.71" duration="117.00" routeLength="1015.10" waitSteps="13" timeLoss="40.96" rerouteNo="0" devices="tripinfo_right_63" vType="typeWE" speedFactor="1.00" vaporized=""/>
    <tripinfo id="left_59" depart="286.00" departLane="52o_0" departPos="5.10" departSpeed="0.00" departDelay="3.00" arrival="409.00" arrivalLane="51i_0" arrivalPos="10.00" arrivalSpeed="11.18" duration="123.00" routeLength="1015.10" waitSteps="19" timeLoss="46.86" rerouteNo="0" devices="tripinfo_left_59" vType="typeWE" speedFactor="1.00" vaporized=""/>
    <tripinfo id="right_64" depart="297.00" departLane="51o_0" departPos="5.10" departSpeed="0.00" departDelay="1.00" arrival="411.00" arrivalLane="52i_0" arrivalPos="10.00" arrivalSpeed="11.77" duration="114.00" routeLength="1015.10" waitSteps="9" timeLoss="38.11" rerouteNo="0" devices="tripinfo_right_64" vType="typeWE" speedFactor="1.00" vaporized=""/>
    <tripinfo id="left_61" depart="291.00" departLane="52o_0" departPos="5.10" departSpeed="0.00" departDelay="4.00" arrival="411.00" arrivalLane="51i_0" arrivalPos="10.00" arrivalSpeed="11.51" duration="120.00" routeLength="1015.10" waitSteps="15" timeLoss="44.03" rerouteNo="0" devices="tripinfo_left_61" vType="typeWE" speedFactor="1.00" vaporized=""/>
    <tripinfo id="right_67" depart="310.00" departLane="51o_0" departPos="5.10" departSpeed="0.00" departDelay="1.00" arrival="413.00" arrivalLane="52i_0" arrivalPos="10.00" arrivalSpeed="11.79" duration="103.00" routeLength="1015.10" waitSteps="0" timeLoss="27.06" rerouteNo="0" devices="tripinfo_right_67" vType="typeWE" speedFactor="1.00" vaporized=""/>
    <tripinfo id="left_62" depart="296.00" departLane="52o_0" departPos="5.10" departSpeed="0.00" departDelay="5.00" arrival="413.00" arrivalLane="51i_0" arrivalPos="10.00" arrivalSpeed="11.59" duration="117.00" routeLength="1015.10" waitSteps="13" timeLoss="40.83" rerouteNo="0" devices="tripinfo_left_62" vType="typeWE" speedFactor="1.00" vaporized=""/>
    <tripinfo id="right_68" depart="315.00" departLane="51o_0" departPos="5.10" departSpeed="0.00" departDelay="5.00" arrival="415.00" arrivalLane="52i_0" arrivalPos="10.00" arrivalSpeed="11.73" duration="100.00" routeLength="1015.10" waitSteps="0" timeLoss="23.81" rerouteNo="0" devices="tripinfo_right_68" vType="typeWE" speedFactor="1.00" vaporized=""/>
    <tripinfo id="left_65" depart="301.00" departLane="52o_0" departPos="5.10" departSpeed="0.00" departDelay="5.00" arrival="415.00" arrivalLane="51i_0" arrivalPos="10.00" arrivalSpeed="11.73" duration="114.00" routeLength="1015.10" waitSteps="8" timeLoss="37.86" rerouteNo="0" devices="tripinfo_left_65" vType="typeWE" speedFactor="1.00" vaporized=""/>
    <tripinfo id="right_69" depart="320.00" departLane="51o_0" departPos="5.10" departSpeed="0.00" departDelay="9.00" arrival="417.00" arrivalLane="52i_0" arrivalPos="10.00" arrivalSpeed="11.53" duration="97.00" routeLength="1015.10" waitSteps="0" timeLoss="20.66" rerouteNo="0" devices="tripinfo_right_69" vType="typeWE" speedFactor="1.00" vaporized=""/>
    <tripinfo id="left_66" depart="306.00" departLane="52o_0" departPos="5.10" departSpeed="0.00" departDelay="8.00" arrival="417.00" arrivalLane="51i_0" arrivalPos="10.00" arrivalSpeed="11.68" duration="111.00" routeLength="1015.10" waitSteps="6" timeLoss="34.70" rerouteNo="0" devices="tripinfo_left_66" vType="typeWE" speedFactor="1.00" vaporized=""/>
    <tripinfo id="right_71" depart="325.00" departLane="51o_0" departPos="5.10" departSpeed="0.00" departDelay="5.00" arrival="419.00" arrivalLane="52i_0" arrivalPos="10.00" arrivalSpeed="11.70" duration="94.00" routeLength="1015.10" waitSteps="0" timeLoss="17.35" rerouteNo="0" devices="tripinfo_right_71" vType="typeWE" speedFactor="1.00" vaporized=""/>
    <tripinfo id="left_70" depart="315.00" departLane="52o_0" departPos="5.10" departSpeed="0.00" departDelay="0.00" arrival="419.00" arrivalLane="51i_0" arrivalPos="10.00" arrivalSpeed="11.72" duration="104.00" routeLength="1015.10" waitSteps="0" timeLoss="27.55" rerouteNo="0" devices="tripinfo_left_70" vType="typeWE" speedFactor="1.00" vaporized=""/>
    <tripinfo id="right_72" depart="330.00" departLane="51o_0" departPos="5.10" departSpeed="0.00" departDelay="1.00" arrival="422.00" arrivalLane="52i_0" arrivalPos="10.00" arrivalSpeed="11.45" duration="92.00" routeLength="1015.10" waitSteps="0" timeLoss="15.69" rerouteNo="0" devices="tripinfo_right_72" vType="typeWE" speedFactor="1.00" vaporized=""/>
    <tripinfo id="left_73" depart="343.00" departLane="52o_0" departPos="5.10" departSpeed="0.00" departDelay="0.00" arrival="434.00" arrivalLane="51i_0" arrivalPos="10.00" arrivalSpeed="11.59" duration="91.00" routeLength="1015.10" waitSteps="0" timeLoss="14.28" rerouteNo="0" devices="tripinfo_left_73" vType="typeWE" speedFactor="1.00" vaporized=""/>
    <tripinfo id="right_74" depart="347.00" departLane="51o_0" departPos="10.00" departSpeed="0.00" departDelay="0.00" arrival="437.00" arrivalLane="52i_0" arrivalPos="10.00" arrivalSpeed="11.20" duration="90.00" routeLength="1010.20" waitSteps="0" timeLoss="18.33" rerouteNo="0" devices="tripinfo_right_74" vType="typeEWEmerg" speedFactor="1.00" vaporized=""/>
    <tripinfo id="left_76" depart="350.00" departLane="52o_0" departPos="5.10" departSpeed="0.00" departDelay="0.00" arrival="441.00" arrivalLane="51i_0" arrivalPos="10.00" arrivalSpeed="11.74" duration="91.00" routeLength="1015.10" waitSteps="0" timeLoss="14.63" rerouteNo="0" devices="tripinfo_left_76" vType="typeWE" speedFactor="1.00" vaporized=""/>
    <tripinfo id="right_75" depart="354.00" departLane="51o_0" departPos="5.10" departSpeed="0.00" departDelay="6.00" arrival="444.00" arrivalLane="52i_0" arrivalPos="10.00" arrivalSpeed="11.40" duration="90.00" routeLength="1015.10" waitSteps="0" timeLoss="13.79" rerouteNo="0" devices="tripinfo_right_75" vType="typeWE" speedFactor="1.00" vaporized=""/>
    <tripinfo id="left_78" depart="357.00" departLane="52o_0" departPos="5.10" departSpeed="0.00" departDelay="0.00" arrival="447.00" arrivalLane="51i_0" arrivalPos="10.00" arrivalSpeed="11.44" duration="90.00" routeLength="1015.10" waitSteps="0" timeLoss="14.08" rerouteNo="0" devices="tripinfo_left_78" vType="typeWE" speedFactor="1.00" vaporized=""/>
    <tripinfo id="right_77" depart="359.00" departLane="51o_0" departPos="5.10" departSpeed="0.00" departDelay="7.00" arrival="451.00" arrivalLane="52i_0" arrivalPos="10.00" arrivalSpeed="11.23" duration="92.00" routeLength="1015.10" waitSteps="0" timeLoss="15.41" rerouteNo="0" devices="tripinfo_right_77" vType="typeWE" speedFactor="1.00" vaporized=""/>
    <tripinfo id="left_79" depart="362.00" departLane="52o_0" departPos="5.10" departSpeed="0.00" departDelay="3.00" arrival="454.00" arrivalLane="51i_0" arrivalPos="10.00" arrivalSpeed="11.29" duration="92.00" routeLength="1015.10" waitSteps="0" timeLoss="15.31" rerouteNo="0" devices="tripinfo_left_79" vType="typeWE" speedFactor="1.00" vaporized=""/>
    <tripinfo id="right_80" depart="364.00" departLane="51o_0" departPos="5.10" departSpeed="0.00" departDelay="1.00" arrival="456.00" arrivalLane="52i_0" arrivalPos="10.00" arrivalSpeed="11.29" duration="92.00" routeLength="1015.10" waitSteps="0" timeLoss="15.24" rerouteNo="0" devices="tripinfo_right_80" vType="typeWE" speedFactor="1.00" vaporized=""/>